                         Program Version 5.0.3 -  RELEASE  -
|  1> ! ROKS BP86 def2-SVP noiter
|  4> ! MOREAD
|  5> %moinp "promolecule_AB.gbw"
|  6> %scf guessmode fmatrix end
|  8> *xyz 0 1
|  9> H 0.0 0.0 0.0
| 10> F 0.0 0.0 1.0
| 11> *
| 13>                          ****END OF INPUT****

CARTESIAN COORDINATES (ANGSTROEM)
---------------------------------
  H      0.000000    0.000000    0.000000
  F      0.000000    0.000000    1.000000

 Total Charge           Charge          ....    0
 Multiplicity           Mult            ....    1
 Number of Electrons    NEL             ....   10
 Basis Dimension        Dim             ....   19

ORBITAL ENERGIES
----------------

  NO   OCC          E(Eh)            E(eV)
   0   2.0000      -0.408792       -11.1238
   1   0.4444       6.417297       174.6235
   2   0.4444       5.301429       144.2592
   3   0.4444       6.310772       171.7248
   4   0.4444     -14.511802      -394.8862
   5   0.4444       4.784821       130.2016
   6   0.4444       4.470558       121.6501
   7   0.4444       7.097282       193.1269
   8   0.4444       7.336615       199.6394
   9   0.4444       7.644906       208.0285
  10   0.4444       7.644926       208.0290
  11   0.4444       7.949996       216.3304
  12   0.4444       4.849712       131.9674
  13   0.4444       4.118051       112.0579
  14   0.4444      -5.124695      -139.4500
  15   0.4444       6.540965       177.9887
  16   0.4444       4.725869       128.5974
  17   0.4444       7.755204       211.0298
  18   0.4444       4.695961       127.7836

MULLIKEN ATOMIC CHARGES
-----------------------
   0 H :   -2.777778
   1 F :    2.777778
Sum of atomic charges:   -0.0000000

LOEWDIN ATOMIC CHARGES
----------------------
   0 H :   -2.510459
   1 F :    2.510459

FINAL SINGLE POINT ENERGY         0.000000000000

DIPOLE MOMENT
-------------
                                X             Y             Z
Electronic contribution:      0.00000      -0.00000       6.32538
Nuclear contribution   :      0.00000       0.00000      -0.93759
                        -----------------------------------------
Total Dipole Moment    :      0.00000      -0.00000       5.38779
                        -----------------------------------------
Magnitude (a.u.)       :      5.38779
Magnitude (Debye)      :     13.69467

Rotational constants in cm-1:     0.000000    17.611192    17.611192
Rotational constants in MHz :     0.000000 527970.251602 527970.251602

                             ****ORCA TERMINATED NORMALLY****
TOTAL RUN TIME: 0 days 0 hours 0 minutes 1 seconds 469 msec
